TITLE = "Radial inlet profile"
VARIABLES = "RelativeCoordinateR" "PressureStagnationAbs" "TemperatureStagnationAbs" "TurbulentDissipationRate" "TurbulentEnergyKinetic" "MachAbs" "VelocityAngleThetaAbs" "VelocityAngleR"
ZONE T = "Entry", I = 50, DATAPACKING = POINT
0.000000	<OPTION inlet_pressure OPTION>	285.601715	1026060540.000000 87.023423	0.012509	0.000000	0.000000
0.000015	<OPTION inlet_pressure OPTION>	285.611877	272764000.000000  87.107581	0.025010	0.000000	0.000000
0.000045	<OPTION inlet_pressure OPTION>	285.652252	71058664.000000	  87.892982	0.049955	0.000000	0.000000
0.000105	<OPTION inlet_pressure OPTION>	285.809784	19033028.000000	  94.695851	0.099324	0.000000	0.000000
0.000225	<OPTION inlet_pressure OPTION>	286.287354	6161079.500000	  143.679722	0.184773	0.000000	0.000000
0.000464	<OPTION inlet_pressure OPTION>	286.814423	2442976.250000	  256.815125	0.269731	0.000000	0.000000
0.000944	<OPTION inlet_pressure OPTION>	287.183380	1008138.750000	  295.599167	0.337865	0.000000	0.000000
0.001903	<OPTION inlet_pressure OPTION>	287.477905	436909.531000	  289.843704	0.396985	0.000000	0.000000
0.003821	<OPTION inlet_pressure OPTION>	287.742432	195774.797000	  263.573340	0.451100	0.000000	0.000000
0.007657	<OPTION inlet_pressure OPTION>	287.974945	89542.757800	  221.657104	0.501072	0.000000	0.000000
0.015328	<OPTION inlet_pressure OPTION>	288.149628	43027.437500	  144.673657	0.552773	0.000000	0.000000
0.030671	<OPTION inlet_pressure OPTION>	288.014038	15335.387700      91.424232	0.589157	0.000000	0.000000
0.061358	<OPTION inlet_pressure OPTION>	288.000183	1413.286110       87.515803	0.591827	0.000000	0.000000
0.096449	<OPTION inlet_pressure OPTION>	287.999817	178.468323        87.496155	0.592039	0.000000	0.000000
0.131540	<OPTION inlet_pressure OPTION>	287.999817	126.990837        87.481733	0.592228	0.000000	0.000000
0.166632	<OPTION inlet_pressure OPTION>	287.999908	94.930939         87.471421	0.592390	0.000000	0.000000
0.201723	<OPTION inlet_pressure OPTION>	287.999939	80.665680         87.466539	0.592524	0.000000	0.000000
0.236815	<OPTION inlet_pressure OPTION>	287.999939	79.308579         87.465783	0.592633	0.000000	0.000000
0.271906	<OPTION inlet_pressure OPTION>	287.999969	82.408257         87.466477	0.592721	0.000000	0.000000
0.306997	<OPTION inlet_pressure OPTION>	288.000000	85.446800         87.467066	0.592796	0.000000	0.000000
0.342089	<OPTION inlet_pressure OPTION>	288.000031	88.319313         87.467514	0.592861	0.000000	0.000000
0.377180	<OPTION inlet_pressure OPTION>	288.000122	91.361176         87.467910	0.592860	0.000000	0.000000
0.412272	<OPTION inlet_pressure OPTION>	288.000275	95.056732         87.468322	0.592976	0.000000	0.000000
0.447363	<OPTION inlet_pressure OPTION>	288.000519	99.877663         87.468711	0.593032	0.000000	0.000000
0.482454	<OPTION inlet_pressure OPTION>	288.000885	106.290390        87.472400	0.593085	0.000000	0.000000
0.517546	<OPTION inlet_pressure OPTION>	288.001373	114.683441        87.494998	0.593138	0.000000	0.000000
0.552637	<OPTION inlet_pressure OPTION>	288.002045	125.144531        87.565762	0.593187	0.000000	0.000000
0.587728	<OPTION inlet_pressure OPTION>	288.002838	140.765472        87.688576	0.593229	0.000000	0.000000
0.622820	<OPTION inlet_pressure OPTION>	288.003693	160.624741        87.871106	0.593265	0.000000	0.000000
0.657911	<OPTION inlet_pressure OPTION>	288.004517	183.982056        88.123031	0.593298	0.000000	0.000000
0.693003	<OPTION inlet_pressure OPTION>	288.005188	210.165726        88.447229	0.593334	0.000000	0.000000
0.728094	<OPTION inlet_pressure OPTION>	288.005737	239.526337        88.843351	0.593384	0.000000	0.000000
0.763185	<OPTION inlet_pressure OPTION>	288.006104	273.480316        89.308903	0.593467	0.000000	0.000000
0.798277	<OPTION inlet_pressure OPTION>	288.006073	311.597961        89.839968	0.593600	0.000000	0.000000
0.833368	<OPTION inlet_pressure OPTION>	288.004852	355.179047        90.417457	0.593815	0.000000	0.000000
0.868460	<OPTION inlet_pressure OPTION>	288.002533	447.548401        90.967472	0.594180	0.000000	0.000000
0.903551	<OPTION inlet_pressure OPTION>	288.003510	866.132507        91.353932	0.594670	0.000000	0.000000
0.938642	<OPTION inlet_pressure OPTION>	288.011536	3233.282470       91.401330	0.594429	0.000000	0.000000
0.969329	<OPTION inlet_pressure OPTION>	288.058716	13451.103500      96.267091	0.583467	0.000000	0.000000
0.984672	<OPTION inlet_pressure OPTION>	287.998138	38187.382800      137.132324	0.550624	0.000000	0.000000
0.992343	<OPTION inlet_pressure OPTION>	287.831665	87495.906200      216.388626	0.493525	0.000000	0.000000
0.996179	<OPTION inlet_pressure OPTION>	287.642334	199195.469000     296.861404	0.430189	0.000000	0.000000
0.998040	<OPTION inlet_pressure OPTION>	287.395477	440039.188000     346.116180	0.371553	0.000000	0.000000
0.999056	<OPTION inlet_pressure OPTION>	287.052857	983334.250000     353.303680	0.316432	0.000000	0.000000
0.999535	<OPTION inlet_pressure OPTION>	286.599304	2323590.750000    281.153091	0.257586	0.000000	0.000000
0.999775	<OPTION inlet_pressure OPTION>	285.889099	5919324.500000	  42.969574	0.179571	0.000000	0.000000
0.999895	<OPTION inlet_pressure OPTION>	285.257812	19047992.000000	  94.297845	0.096049	0.000000	0.000000
0.999955	<OPTION inlet_pressure OPTION>	285.055206	71963456.000000	  87.843495	0.048093	0.000000	0.000000
0.999985	<OPTION inlet_pressure OPTION>	285.003693	276553280.000000  87.101564	0.024043	0.000000	0.000000
1.000000	<OPTION inlet_pressure OPTION>	284.990784	1040453310.000000 87.022106	0.012026	0.000000	0.000000






